# vtk DataFile Version 2.0
unstructured_gmsh, Created by Gmsh 4.13.1 
ASCII
DATASET UNSTRUCTURED_GRID
POINTS 72 double
0.201 0.2 0
0 0 0
2.2 0 0
0 0.41 0
2.2 0.41 0
0.2006234898018587 0.200781831482468 0
0.1997774790660437 0.2009749279121818 0
0.1990990311320976 0.2004338837391176 0
0.1990990311320976 0.1995661162608824 0
0.1997774790660437 0.1990250720878182 0
0.2006234898018587 0.199218168517532 0
0.2200000000000001 0 0
0.4400000000000001 0 0
0.6599999999999999 0 0
0.8799999999999998 0 0
1.1 0 0
1.32 0 0
1.54 0 0
1.759999999999999 0 0
1.98 0 0
0 0.2050000000000005 0
2.2 0.2049999999999994 0
1.98 0.41 0
1.76 0.41 0
1.54 0.41 0
1.32 0.41 0
1.1 0.41 0
0.8800000000000006 0.41 0
0.6600000000000006 0.41 0
0.4400000000000008 0.41 0
0.2200000000000004 0.41 0
0.3429769082777512 0.116118448908557 0
0.4820881251158889 0.1495672655218477 0
0.3300000000000005 0.2943061198463183 0
0.1104390852429329 0.2905883941511935 0
1.210072694842773 0.2000838702546601 0
0.7809853866322078 0.2158381718173092 0
1.649999999999999 0.2000474357898745 0
0.107470526032412 0.1044697158791886 0
1.893311394751891 0.2130036072606355 0
1.430008654147949 0.2074152202262472 0
0.9918430135791636 0.2059870070119949 0
0.20697951923015 0.3057689219069898 0
0.2502278592752276 0.2565546814080285 0
0.1641312644016086 0.2587495974398453 0
0.20571050896049 0.2445864160027377 0
0.2337092203430977 0.2252482724010163 0
0.27478590973604 0.2056626298744109 0
0.233344812719008 0.1699412479699559 0
0.2251484911832953 0.2010811389676153 0
0.2126733325604353 0.2183564957522892 0
0.1753520826371635 0.2295323028978609 0
0.1446478133060559 0.214066014840451 0
0.1394430136816563 0.1601244372094341 0
0.1938934110857009 0.2188151509831148 0
0.1737333884332471 0.2074064651390194 0
0.1766500661805442 0.1718901827961259 0
0.1931673133239374 0.1314697780161689 0
0.374910812613683 0.212208539239606 0
0.2592272366192304 0.1253897743863212 0
0.1823199259021429 0.1902337078211053 0
0.1942056020162121 0.1927554211422899 0
0.1917325526810774 0.2014550961425302 0
0.2110619393908528 0.2044564074532839 0
0.2137930521788952 0.1882086757689393 0
0.2041011394329917 0.2106215925573565 0
2.047568435160884 0.1567806234957815 0
0.2033128095383495 0.2033669518810581 0
0.5779627719478055 0.2467989448976755 0
0.09369142685686671 0.1909202699492182 0
2.076824472440079 0.2929371664037158 0
0.4409923419354757 0.2625761739010894 0

CELLS 144 545
2 0 5
2 5 6
2 6 7
2 7 8
2 8 9
2 9 10
2 10 0
2 1 11
2 11 12
2 12 13
2 13 14
2 14 15
2 15 16
2 16 17
2 17 18
2 18 19
2 19 2
2 3 20
2 20 1
2 2 21
2 21 4
2 4 22
2 22 23
2 23 24
2 24 25
2 25 26
2 26 27
2 27 28
2 28 29
2 29 30
2 30 3
3 61 64 10
3 52 56 55
3 57 64 56
3 34 52 44
3 38 69 20
3 43 47 33
3 42 43 33
3 11 38 1
3 3 34 30
3 34 69 52
3 53 56 52
3 26 35 25
3 14 36 13
3 24 37 23
3 14 41 36
3 15 41 14
3 17 40 16
3 19 39 18
3 48 59 47
3 12 31 11
3 36 68 13
3 56 61 60
3 37 39 23
3 24 40 37
3 35 40 25
3 20 34 3
3 26 41 35
3 18 39 37
3 16 40 35
3 37 40 17
3 30 33 29
3 35 41 15
3 13 68 32
3 1 38 20
3 45 54 50
3 46 49 47
3 34 44 42
3 45 46 43
3 23 39 22
3 25 40 24
3 27 41 26
3 36 41 27
3 21 66 2
3 28 36 27
3 18 37 17
3 16 35 15
3 2 66 19
3 47 59 31
3 47 49 48
3 50 63 49
3 31 59 11
3 44 51 45
3 45 50 46
3 39 70 22
3 34 42 30
3 19 66 39
3 29 71 68
3 13 32 12
3 11 57 38
3 66 70 39
3 54 65 50
3 30 42 33
3 29 68 28
3 57 59 48
3 51 54 45
3 11 59 57
3 42 45 43
3 38 57 53
3 31 58 47
3 55 62 54
3 22 70 4
3 47 58 33
3 32 58 31
3 12 32 31
3 44 45 42
3 20 69 34
3 46 50 49
3 28 68 36
3 49 64 48
3 4 70 21
3 52 69 53
3 65 67 63
3 53 69 38
3 51 55 54
3 52 55 51
3 63 64 49
3 46 47 43
3 21 70 66
3 33 71 29
3 44 52 51
3 68 71 32
3 50 65 63
3 53 57 56
3 61 62 60
3 60 62 55
3 58 71 33
3 32 71 58
3 0 67 5
3 10 64 0
3 0 64 63
3 63 67 0
3 5 67 6
3 6 62 7
3 54 62 6
3 6 65 54
3 6 67 65
3 7 62 8
3 8 61 9
3 8 62 61
3 9 61 10
3 48 64 57
3 56 60 55
3 56 64 61

CELL_TYPES 144
3
3
3
3
3
3
3
3
3
3
3
3
3
3
3
3
3
3
3
3
3
3
3
3
3
3
3
3
3
3
3
5
5
5
5
5
5
5
5
5
5
5
5
5
5
5
5
5
5
5
5
5
5
5
5
5
5
5
5
5
5
5
5
5
5
5
5
5
5
5
5
5
5
5
5
5
5
5
5
5
5
5
5
5
5
5
5
5
5
5
5
5
5
5
5
5
5
5
5
5
5
5
5
5
5
5
5
5
5
5
5
5
5
5
5
5
5
5
5
5
5
5
5
5
5
5
5
5
5
5
5
5
5
5
5
5
5
5
5
5
5
5
5
5

CELL_DATA 144
SCALARS CellEntityIds int 1
LOOKUP_TABLE default
1
1
1
1
1
1
1
2
2
2
2
2
2
2
2
2
2
2
2
2
2
2
2
2
2
2
2
2
2
2
2
3
3
3
3
3
3
3
3
3
3
3
3
3
3
3
3
3
3
3
3
3
3
3
3
3
3
3
3
3
3
3
3
3
3
3
3
3
3
3
3
3
3
3
3
3
3
3
3
3
3
3
3
3
3
3
3
3
3
3
3
3
3
3
3
3
3
3
3
3
3
3
3
3
3
3
3
3
3
3
3
3
3
3
3
3
3
3
3
3
3
3
3
3
3
3
3
3
3
3
3
3
3
3
3
3
3
3
3
3
3
3
3
3
